 Gaussian 16, Revision B.01,
 Gaussian 16:  ES64L-G16RevB.01 20-Dec-2017

 ------------------------------
 #P MP2 gen Opt Units=Angstroms
 ------------------------------

 Geometry optimization with frozen fullerene and free pseudomolecule di
 ff basis set
 ----------------------------------------------------------------------
 Symbolic Z-matrix:
 Charge =  0 Multiplicity = 1

 SCF Done:  E(RHF) =  -2279.87411293     A.U. after   16 cycles
 E2 =    -0.5872622589D+01 EUMP2 =    -0.22857467355216D+04
 SCF Done:  E(RHF) =  -2279.87412120     A.U. after    5 cycles
 E2 =    -0.5872615527D+01 EUMP2 =    -0.22857467367320D+04
 SCF Done:  E(RHF) =  -2279.87413889     A.U. after    5 cycles
 E2 =    -0.5872599289D+01 EUMP2 =    -0.22857467381830D+04
 Optimization completed.
    -- Stationary point found.

                         Standard orientation:
 ---------------------------------------------------------------------
 Center     Atomic      Atomic             Coordinates (Angstroms)
 Number     Number       Type             X           Y           Z
 ---------------------------------------------------------------------
      1          6           0        2.599386    1.964150    1.427172
      2          6           0        1.833641    2.966523    0.698905
      3          6           0        1.833641    2.966523   -0.698905
      4          6           0        2.599386    1.964150   -1.427172
      5          6           0        3.334258    1.002190   -0.728267
      6          6           0        3.334258    1.002190    0.728267
      7          6           0        0.594639    3.203152    1.427172
      8          6           0        0.594639    3.203152   -1.427172
      9          6           0        1.833641    1.581277   -2.605532
     10          6           0        3.334258   -0.383056   -1.178361
     11          6           0        3.334258   -0.383056    1.178361
     12          6           0        1.833641    1.581277    2.605532
     13          6           0        2.599386   -0.750492   -2.309212
     14          6           0        1.833641    0.251882   -3.037479
     15          6           0        1.833641   -1.989493   -2.309212
     16          6           0        0.594639   -0.367619   -3.487573
     17          6           0       -0.594409    3.430240    0.728267
     18          6           0        0.594639    2.347023   -2.605532
     19          6           0        0.594639   -1.752865   -3.037479
     20          6           0       -0.594409    1.752499   -3.037479
     21          6           0       -0.594409    3.430240   -0.728267
     22          6           0        3.334258   -1.239185   -0.000000
     23          6           0        2.599386   -0.750492    2.309212
     24          6           0       -1.833410    2.810739    1.178361
     25          6           0        1.833641    0.251882    3.037479
     26          6           0        0.594639    2.347023    2.605532
     27          6           0        1.833641   -1.989493    2.309212
     28          6           0        0.594639   -0.367619    3.487573
     29          6           0       -0.594409    1.752499    3.037479
     30          6           0       -0.594409    0.367253   -3.487573
     31          6           0        2.599386   -2.428232   -0.000000
     32          6           0       -1.833410    2.810739   -1.178361
     33          6           0        0.594639   -1.752865    3.037479
     34          6           0       -0.594409    0.367253    3.487573
     35          6           0       -1.833410    1.989127    2.309212
     36          6           0       -2.599156    0.750125    2.309212
     37          6           0       -2.599156    2.427866    0.000000
     38          6           0       -1.833410    1.989127   -2.309212
     39          6           0       -2.599156    0.750125   -2.309212
     40          6           0       -1.833410   -0.252248    3.037479
     41          6           0       -1.833410   -1.581644    2.605532
     42          6           0       -2.599156   -1.964516    1.427172
     43          6           0       -0.594409   -2.347389    2.605532
     44          6           0        1.833641   -2.811105   -1.178361
     45          6           0       -3.334027    0.382689   -1.178361
     46          6           0        1.833641   -2.811105    1.178361
     47          6           0        0.594639   -3.430606    0.728267
     48          6           0       -3.334027    1.238819    0.000000
     49          6           0       -1.833410   -0.252248   -3.037479
     50          6           0       -1.833410   -1.581644   -2.605532
     51          6           0       -3.334027    0.382689    1.178361
     52          6           0       -3.334027   -1.002557    0.728267
     53          6           0       -0.594409   -3.203518    1.427172
     54          6           0       -1.833410   -2.966890    0.698905
     55          6           0       -3.334027   -1.002557   -0.728267
     56          6           0        0.594639   -3.430606   -0.728267
     57          6           0       -0.594409   -2.347389   -2.605532
     58          6           0       -2.599156   -1.964516   -1.427172
     59          6           0       -0.594409   -3.203518   -1.427172
     60          6           0       -1.833410   -2.966890   -0.698905
     61          2           0       -0.140423   -0.534262   -0.978857
     62          2           0        0.260120    1.101496    0.000000
     63          2           0       -0.140423   -0.534262    0.978857
 ---------------------------------------------------------------------

 The electronic state is 1-A'.
 Alpha  occ. eigenvalues --  -11.31282 -11.31279 -11.31264 -11.31264 -11.31253
 Alpha  occ. eigenvalues --  -11.31253 -11.31249 -11.31235 -11.31234 -11.31227
 Alpha  occ. eigenvalues --  -11.31222 -11.31221 -11.31217 -11.31214 -11.31204
 Alpha  occ. eigenvalues --  -11.31202 -11.31198 -11.31194 -11.31190 -11.31189
 Alpha  occ. eigenvalues --  -11.31187 -11.31183 -11.31182 -11.31171 -11.31160
 Alpha  occ. eigenvalues --  -11.31159 -11.31150 -11.31147 -11.31136 -11.31132
 Alpha  occ. eigenvalues --  -11.31114 -11.31111 -11.31104 -11.31103 -11.31101
 Alpha  occ. eigenvalues --  -11.31094 -11.31080 -11.31079 -11.31078 -11.31072
 Alpha  occ. eigenvalues --  -11.31069 -11.31068 -11.31060 -11.31056 -11.31052
 Alpha  occ. eigenvalues --  -11.31046 -11.31045 -11.31037 -11.31036 -11.31024
 Alpha  occ. eigenvalues --  -11.31023 -11.31013 -11.31012 -11.31005 -11.31000
 Alpha  occ. eigenvalues --  -11.30999 -11.30998 -11.30961 -11.30949 -11.30948
 Alpha  occ. eigenvalues --   -1.31614  -1.29110  -1.29109  -1.29044  -1.24264
 Alpha  occ. eigenvalues --   -1.24259  -1.24256  -1.24233  -1.24232  -1.19045
 Alpha  occ. eigenvalues --   -1.19042  -1.19034  -1.15299  -1.15282  -1.15278
 Alpha  occ. eigenvalues --   -1.15271  -1.08635  -1.08633  -1.08627  -1.08626
 Alpha  occ. eigenvalues --   -1.08625  -1.06797  -1.06795  -1.06790  -1.06789
 Alpha  occ. eigenvalues --   -1.01141  -0.99896  -0.99896  -0.99894  -0.99892
 Alpha  occ. eigenvalues --   -0.99882  -0.96922  -0.96918  -0.96905  -0.94086
 Alpha  occ. eigenvalues --   -0.94025  -0.90995  -0.90993  -0.90988  -0.87104
 Alpha  occ. eigenvalues --   -0.87103  -0.87093  -0.86953  -0.86952  -0.86948
 Alpha  occ. eigenvalues --   -0.86938  -0.86936  -0.81854  -0.77265  -0.77261
 Alpha  occ. eigenvalues --   -0.77254  -0.77254  -0.75124  -0.75123  -0.75121
 Alpha  occ. eigenvalues --   -0.75118  -0.75117  -0.72314  -0.72300  -0.72300
 Alpha  occ. eigenvalues --   -0.68583  -0.68579  -0.68575  -0.65635  -0.65631
 Alpha  occ. eigenvalues --   -0.65631  -0.65626  -0.65583  -0.63657  -0.63656
 Alpha  occ. eigenvalues --   -0.63644  -0.63638  -0.63633  -0.63113  -0.62532
 Alpha  occ. eigenvalues --   -0.62529  -0.61918  -0.61917  -0.61916  -0.61915
 Alpha  occ. eigenvalues --   -0.60287  -0.60282  -0.60279  -0.58382  -0.58381
 Alpha  occ. eigenvalues --   -0.58373  -0.58360  -0.57021  -0.57019  -0.56927
 Alpha  occ. eigenvalues --   -0.56849  -0.56837  -0.52288  -0.52286  -0.52279
 Alpha  occ. eigenvalues --   -0.52278  -0.52264  -0.50972  -0.50970  -0.50958
 Alpha  occ. eigenvalues --   -0.50951  -0.50949  -0.48903  -0.48881  -0.48868
 Alpha  occ. eigenvalues --   -0.47212  -0.47188  -0.47181  -0.47176  -0.37480
 Alpha  occ. eigenvalues --   -0.37478  -0.37474  -0.37468  -0.36421  -0.36421
 Alpha  occ. eigenvalues --   -0.36414  -0.36412  -0.36411  -0.30080  -0.30078
 Alpha  occ. eigenvalues --   -0.30077  -0.30076  -0.30074
 Alpha virt. eigenvalues --   -0.03550  -0.03548  -0.03545   0.02487   0.02487
 Alpha virt. eigenvalues --    0.02490   0.08447   0.08454   0.08457   0.08475
 Alpha virt. eigenvalues --    0.08477   0.08479   0.08488   0.08489   0.17292

 Mulliken charges:
               1
     1  C    0.001888
     2  C   -0.005547
     3  C   -0.005547
     4  C    0.001888
     5  C    0.000320
     6  C    0.000320
     7  C   -0.004914
     8  C   -0.004914
     9  C    0.000148
    10  C   -0.000010
    11  C   -0.000010
    12  C    0.000148
    13  C    0.000303
    14  C    0.001634
    15  C    0.001080
    16  C   -0.003260
    17  C   -0.004073
    18  C    0.002187
    19  C   -0.006590
    20  C    0.001493
    21  C   -0.004073
    22  C    0.000362
    23  C    0.000303
    24  C    0.001870
    25  C    0.001634
    26  C    0.002187
    27  C    0.001080
    28  C   -0.003260
    29  C    0.001493
    30  C   -0.001609
    31  C    0.000231
    32  C    0.001870
    33  C   -0.006590
    34  C   -0.001609
    35  C    0.000113
    36  C    0.001308
    37  C   -0.000062
    38  C    0.000113
    39  C    0.001308
    40  C   -0.001639
    41  C   -0.004513
    42  C    0.001606
    43  C   -0.008200
    44  C    0.000208
    45  C    0.000225
    46  C    0.000208
    47  C    0.000523
    48  C   -0.000148
    49  C   -0.001639
    50  C   -0.004513
    51  C    0.000225
    52  C    0.000352
    53  C    0.000933
    54  C    0.000404
    55  C    0.000352
    56  C    0.000523
    57  C   -0.008200
    58  C    0.001606
    59  C    0.000933
    60  C    0.000404
    61  He   0.015649
    62  He   0.015843
    63  He   0.015649
 Sum of Mulliken charges =  -0.00000

 Dipole moment (field-independent basis, Debye):
    X=              0.0011    Y=             -0.0004    Z=             -0.0000  Tot=              0.0012
 Quadrupole moment (field-independent basis, Debye-Ang):
   XX=           -354.7358   YY=           -355.5953   ZZ=           -355.6509
   XY=             -0.2300   XZ=             -0.0000   YZ=             -0.0000

 Normal termination of Gaussian 16 at Tue Apr  9 00:08:41 2024.
