                         Program Version 5.0.4 -  RELEASE  -
|  1> #For obtaining rotational constants
|  2> !UHF B3LYP cc-pVTZ OPT FREQ
|  3>
|  4> *xyz 0 1
|  5> He	0.5390456966        0.9788282225       -0.1383245163
|  6> He	-1.1024884940        0.0000000000        0.2641072565
|  7> He	0.5390456966       -0.9788282225       -0.1383245163
|  8> *
|  9>
| 10>
| 11>
| 12>
| 13>
| 14>                          ****END OF INPUT****
 Total Charge           Charge          ....    0
 Multiplicity           Mult            ....    1
 Number of Electrons    NEL             ....    6
FINAL SINGLE POINT ENERGY        -8.715756451186
FINAL SINGLE POINT ENERGY        -8.717996665519
FINAL SINGLE POINT ENERGY        -8.719460323227
FINAL SINGLE POINT ENERGY        -8.720416734957
FINAL SINGLE POINT ENERGY        -8.721047499048
FINAL SINGLE POINT ENERGY        -8.721439673816
FINAL SINGLE POINT ENERGY        -8.721674780314
FINAL SINGLE POINT ENERGY        -8.721821471295
FINAL SINGLE POINT ENERGY        -8.721916386905
FINAL SINGLE POINT ENERGY        -8.721969773271
FINAL SINGLE POINT ENERGY        -8.722090318949
FINAL SINGLE POINT ENERGY        -8.722079218076
FINAL SINGLE POINT ENERGY        -8.722071015171
FINAL SINGLE POINT ENERGY        -8.722076164849
FINAL SINGLE POINT ENERGY        -8.722089357279
FINAL SINGLE POINT ENERGY        -8.722096999643
FINAL SINGLE POINT ENERGY        -8.722095288051
FINAL SINGLE POINT ENERGY        -8.722093265470
FINAL SINGLE POINT ENERGY        -8.722093830983
                    ***********************HURRAY********************

CARTESIAN COORDINATES (ANGSTROEM)
---------------------------------
  He     1.084219    1.450484   -0.271977
  He    -2.192834    0.000001    0.531412
  He     1.084218   -1.450485   -0.271977

 Multiplicity           Mult            ....    1
 Number of Electrons    NEL             ....    6
 Basis Dimension        Dim             ....   42

ORBITAL ENERGIES
----------------
                 SPIN UP ORBITALS
  NO   OCC          E(Eh)            E(eV)
   0   1.0000      -0.659217       -17.9382
   1   1.0000      -0.656414       -17.8619
   2   1.0000      -0.653970       -17.7954
   3   0.0000       0.418162        11.3788
   4   0.0000       0.483016        13.1435
   5   0.0000       0.530832        14.4447
   6   0.0000       1.244195        33.8563
   7   0.0000       1.244518        33.8651

                 SPIN DOWN ORBITALS
  NO   OCC          E(Eh)            E(eV)
   0   1.0000      -0.659217       -17.9382
   1   1.0000      -0.656414       -17.8619
   2   1.0000      -0.653970       -17.7954
   3   0.0000       0.418162        11.3788
   4   0.0000       0.483016        13.1435
   5   0.0000       0.530832        14.4447
   6   0.0000       1.244195        33.8563
   7   0.0000       1.244518        33.8651

MULLIKEN ATOMIC CHARGES AND SPIN POPULATIONS
--------------------------------------------
   0 He:    0.000000    0.000000
   1 He:   -0.000000    0.000000
   2 He:    0.000000    0.000000
Sum of atomic charges         :   -0.0000000

LOEWDIN ATOMIC CHARGES AND SPIN POPULATIONS
-------------------------------------------
   0 He:   -0.000000    0.000000
   1 He:    0.000000    0.000000
   2 He:   -0.000000    0.000000

FINAL SINGLE POINT ENERGY        -8.722093903956

DIPOLE MOMENT
-------------
                                X             Y             Z
Electronic contribution:     -0.00000       0.00000      -0.00001
Nuclear contribution   :      0.00000       0.00000      -0.00000
                        -----------------------------------------
Total Dipole Moment    :     -0.00000       0.00000      -0.00001
                        -----------------------------------------
Magnitude (a.u.)       :      0.00001
Magnitude (Debye)      :      0.00003

VIBRATIONAL FREQUENCIES
-----------------------

Scaling factor for frequencies =  1.000000000  (already applied!)

   0:         0.00 cm**-1
   1:         0.00 cm**-1
   2:         0.00 cm**-1
   3:         0.00 cm**-1
   4:         0.00 cm**-1
   5:         0.00 cm**-1
   6:       -10.50 cm**-1 ***imaginary mode***
   7:         9.21 cm**-1
   8:        26.50 cm**-1

IR SPECTRUM
-----------

 Mode   freq       eps      Int      T**2         TX        TY        TZ
       cm**-1   L/(mol*cm) km/mol    a.u.
----------------------------------------------------------------------------
  7:      9.21   0.000000    0.00  0.000000  (-0.000018  0.000000 -0.000002)
  8:     26.50   0.000000    0.00  0.000000  (-0.000005 -0.000000 -0.000001)

--------------------------
THERMOCHEMISTRY AT 298.15K
--------------------------

Temperature         ... 298.15 K
Pressure            ... 1.00 atm
Total Mass          ... 12.01 AMU

Throughout the following assumptions are being made:
  (1) The electronic state is orbitally nondegenerate
  (2) There are no thermally accessible electronically excited states
  (3) Hindered rotations indicated by low frequency modes are not
      treated as such but are treated as vibrations and this may
      cause some error
  (4) All equations used are the standard statistical mechanics
      equations for an ideal gas
  (5) All vibrations are strictly harmonic

freq.       9.21  E(vib)   ...       0.58
freq.      26.50  E(vib)   ...       0.56

------------
INNER ENERGY
------------

The inner energy is: U= E(el) + E(ZPE) + E(vib) + E(rot) + E(trans)
    E(el)   - is the total energy from the electronic structure calculation
              = E(kin-el) + E(nuc-el) + E(el-el) + E(nuc-nuc)
    E(ZPE)  - the the zero temperature vibrational energy from the frequency calculation
    E(vib)  - the the finite temperature correction to E(ZPE) due to population
              of excited vibrational states
    E(rot)  - is the rotational thermal energy
    E(trans)- is the translational thermal energy

Summary of contributions to the inner energy U:
Electronic energy                ...     -8.72209390 Eh
Zero point energy                ...      0.00008134 Eh       0.05 kcal/mol
Thermal vibrational correction   ...      0.00180852 Eh       1.13 kcal/mol
Thermal rotational correction    ...      0.00141627 Eh       0.89 kcal/mol
Thermal translational correction ...      0.00141627 Eh       0.89 kcal/mol
-----------------------------------------------------------------------
Total thermal energy                     -8.71737150 Eh

Summary of corrections to the electronic energy:
(perhaps to be used in another calculation)
Total thermal correction                  0.00464106 Eh       2.91 kcal/mol
Non-thermal (ZPE) correction              0.00008134 Eh       0.05 kcal/mol
-----------------------------------------------------------------------
Total correction                          0.00472240 Eh       2.96 kcal/mol

--------
ENTHALPY
--------

The enthalpy is H = U + kB*T
                kB is Boltzmann's constant
Total free energy                 ...     -8.71737150 Eh
Thermal Enthalpy correction       ...      0.00094421 Eh       0.59 kcal/mol
-----------------------------------------------------------------------
Total Enthalpy                    ...     -8.71642729 Eh

Note: Rotational entropy computed according to Herzberg
Infrared and Raman Spectra, Chapter V,1, Van Nostrand Reinhold, 1945
Point Group:  C2v, Symmetry Number:   2
Rotational constants in cm-1:     1.000818     0.554866     0.356962

Vibrational entropy computed according to the QRRHO of S. Grimme
Chem.Eur.J. 2012 18 9955

-------
ENTROPY
-------

The entropy contributions are T*S = T*(S(el)+S(vib)+S(rot)+S(trans))
     S(el)   - electronic entropy
     S(vib)  - vibrational entropy
     S(rot)  - rotational entropy
     S(trans)- translational entropy
The entropies will be listed as multiplied by the temperature to get
units of energy

Electronic entropy                ...      0.00000000 Eh      0.00 kcal/mol
Vibrational entropy               ...      0.00447077 Eh      2.81 kcal/mol
Rotational entropy                ...      0.00962035 Eh      6.04 kcal/mol
Translational entropy             ...      0.01586944 Eh      9.96 kcal/mol
-----------------------------------------------------------------------
Final entropy term                ...      0.02996056 Eh     18.80 kcal/mol

In case the symmetry of your molecule has not been determined correctly
or in case you have a reason to use a different symmetry number we print
out the resulting rotational entropy values for sn=1,12 :
 --------------------------------------------------------
|  sn= 1 | S(rot)=       0.01027481 Eh      6.45 kcal/mol|
|  sn= 2 | S(rot)=       0.00962035 Eh      6.04 kcal/mol|
|  sn= 3 | S(rot)=       0.00923752 Eh      5.80 kcal/mol|
|  sn= 4 | S(rot)=       0.00896590 Eh      5.63 kcal/mol|
|  sn= 5 | S(rot)=       0.00875521 Eh      5.49 kcal/mol|
|  sn= 6 | S(rot)=       0.00858307 Eh      5.39 kcal/mol|
|  sn= 7 | S(rot)=       0.00843752 Eh      5.29 kcal/mol|
|  sn= 8 | S(rot)=       0.00831144 Eh      5.22 kcal/mol|
|  sn= 9 | S(rot)=       0.00820023 Eh      5.15 kcal/mol|
|  sn=10 | S(rot)=       0.00810075 Eh      5.08 kcal/mol|
|  sn=11 | S(rot)=       0.00801076 Eh      5.03 kcal/mol|
|  sn=12 | S(rot)=       0.00792861 Eh      4.98 kcal/mol|
 --------------------------------------------------------

-------------------
GIBBS FREE ENERGY
-------------------

The Gibbs free energy is G = H - T*S

Total enthalpy                    ...     -8.71642729 Eh
Total entropy correction          ...     -0.02996056 Eh    -18.80 kcal/mol
-----------------------------------------------------------------------
Final Gibbs free energy         ...     -8.74638785 Eh

For completeness - the Gibbs free energy minus the electronic energy
G-E(el)                           ...     -0.02429395 Eh    -15.24 kcal/mol

                             ****ORCA TERMINATED NORMALLY****
TOTAL RUN TIME: 0 days 0 hours 0 minutes 45 seconds 857 msec
