                         Program Version 5.0.4 -  RELEASE  -
|  1> !HF DEF2-SVP
|  2> %SCF
|  3>    MAXITER 500
|  4>    END
|  5>    * xyz 0 1
|  6>    O   0.0000   0.0000   0.0626
|  7>    H  -0.7920   0.0000  -0.4973
|  8>    H   0.7920   0.0000  -0.4973
|  9>    *
| 10>
| 11>                          ****END OF INPUT****

CARTESIAN COORDINATES (ANGSTROEM)
---------------------------------
  O      0.000000    0.000000    0.062600
  H     -0.792000    0.000000   -0.497300
  H      0.792000    0.000000   -0.497300

 Total Charge           Charge          ....    0
 Multiplicity           Mult            ....    1
 Number of Electrons    NEL             ....   10
 Basis Dimension        Dim             ....   24

ORBITAL ENERGIES
----------------

  NO   OCC          E(Eh)            E(eV)
   0   2.0000     -20.544924      -559.0558
   1   2.0000      -1.308381       -35.6029
   2   2.0000      -0.705611       -19.2006
   3   2.0000      -0.555975       -15.1288
   4   2.0000      -0.495164       -13.4741
   5   0.0000       0.174990         4.7617
   6   0.0000       0.253028         6.8852
   7   0.0000       0.804596        21.8942
   8   0.0000       0.833957        22.6931
   9   0.0000       1.185285        32.2532

MULLIKEN ATOMIC CHARGES
-----------------------
   0 O :   -0.376189
   1 H :    0.188094
   2 H :    0.188094
Sum of atomic charges:    0.0000000

LOEWDIN ATOMIC CHARGES
----------------------
   0 O :   -0.171804
   1 H :    0.085902
   2 H :    0.085902

  Mayer bond orders larger than 0.100000
B(  0-O ,  1-H ) :   0.9878 B(  0-O ,  2-H ) :   0.9878

FINAL SINGLE POINT ENERGY       -75.959340310823

DIPOLE MOMENT
-------------
                                X             Y             Z
Electronic contribution:     -0.00000      -0.00000       0.11911
Nuclear contribution   :      0.00000       0.00000      -0.93208
                        -----------------------------------------
Total Dipole Moment    :     -0.00000      -0.00000      -0.81296
                        -----------------------------------------
Magnitude (a.u.)       :      0.81296
Magnitude (Debye)      :      2.06639

Rotational constants in cm-1:    30.034947    13.330794     9.232857
Rotational constants in MHz : 900425.051220 399647.143338 276794.089602

                             ****ORCA TERMINATED NORMALLY****
TOTAL RUN TIME: 0 days 0 hours 0 minutes 0 seconds 397 msec
