 Gaussian 16, Revision B.01,
 Gaussian 16:  EM64L-G16RevB.01 20-Dec-2017

 ---------------------
 #P HF/STO-3G Opt Freq
 ---------------------

 ---------------------------------------------
 Geometry Optimization of the Three He3 system
 ---------------------------------------------
 Symbolic Z-matrix:
 Charge =  0 Multiplicity = 1

 SCF Done:  E(RHF) =  -8.41695987685     A.U. after    1 cycles
 SCF Done:  E(RHF) =  -8.41929632864     A.U. after    1 cycles
 SCF Done:  E(RHF) =  -8.42177425990     A.U. after    1 cycles
 SCF Done:  E(RHF) =  -8.42306206003     A.U. after    1 cycles
 SCF Done:  E(RHF) =  -8.42330503626     A.U. after    1 cycles
 SCF Done:  E(RHF) =  -8.42332040884     A.U. after    1 cycles
 SCF Done:  E(RHF) =  -8.42333859121     A.U. after    1 cycles
 SCF Done:  E(RHF) =  -8.42334517472     A.U. after    1 cycles
 SCF Done:  E(RHF) =  -8.42334871817     A.U. after    1 cycles
 SCF Done:  E(RHF) =  -8.42335034761     A.U. after    1 cycles
 Optimization completed on the basis of negligible forces.
    -- Stationary point found.
 Normal termination of Gaussian 16 at Thu Nov  9 16:21:16 2023.

 ---------------------------------------------------------------
 #P Geom=AllCheck Guess=TCheck SCRF=Check GenChk RHF/STO-3G Freq
 ---------------------------------------------------------------

 Structure from the checkpoint file:  "/tmp/Gau-9598.chk"
 ---------------------------------------------
 Geometry Optimization of the Three He3 system
 ---------------------------------------------
 Charge =  0 Multiplicity = 1

                         Standard orientation:
 ---------------------------------------------------------------------
 Center     Atomic      Atomic             Coordinates (Angstroms)
 Number     Number       Type             X           Y           Z
 ---------------------------------------------------------------------
      1          2           0        0.000000    1.679811   -0.977239
      2          2           0       -0.000000    0.000000    1.954477
      3          2           0       -0.000000   -1.679811   -0.977239
 ---------------------------------------------------------------------

 SCF Done:  E(RHF) =  -8.42335034761     A.U. after    1 cycles

 The electronic state is 1-A1.
 Alpha  occ. eigenvalues --   -0.87693  -0.87561  -0.87557

 Mulliken charges:
               1
     1  He  -0.000000
     2  He  -0.000000
     3  He   0.000000
 Sum of Mulliken charges =  -0.00000

 Dipole moment (field-independent basis, Debye):
    X=              0.0000    Y=              0.0000    Z=             -0.0000  Tot=              0.0000
 Quadrupole moment (field-independent basis, Debye-Ang):
   XX=             -2.8220   YY=             -2.8220   ZZ=             -2.8220
   XY=             -0.0000   XZ=             -0.0000   YZ=             -0.0000

  Exact polarizability:   0.000   0.000   0.000   0.000   0.000   0.000
 Approx polarizability:  -0.000  -0.000  -0.000  -0.000  -0.000  -0.000

                      1                      2                      3
                     B2                     A1                     A1
 Frequencies --      7.7087                 8.0786                11.4542
 Red. masses --      4.0026                 4.0026                 4.0026
 Frc consts  --      0.0001                 0.0002                 0.0003
 IR Inten    --      0.0000                 0.0000                 0.0000
 Raman Activ --      0.0000                 0.0000                 0.0000

 - Thermochemistry -
 -------------------
 Temperature   298.150 Kelvin.  Pressure   1.00000 Atm.
 Atom     1 has atomic number  2 and mass   4.00260

 Molecular mass:    12.00781 amu.
 Principal axes and moments of inertia in atomic units:
                           1         2         3
     Eigenvalues --    80.66608  81.90167 162.56775
           X            0.00000   0.00000   1.00000
           Y            0.00000   1.00000  -0.00000
           Z            1.00000  -0.00000  -0.00000
 This molecule is an asymmetric top.
 Rotational symmetry number  2.
 Rotational temperatures (Kelvin)      1.07373     1.05754     0.53279
 Rotational constants (GHZ):          22.37299    22.03546    11.10147
 Zero-point vibrational energy        162.9 (Joules/Mol)
                                    0.03894 (Kcal/Mol)
 Warning -- explicit consideration of   3 degrees of freedom as
           vibrations may cause significant error
 Vibrational temperatures:     11.09    11.62    16.48
          (Kelvin)

 Zero-point correction=                           0.000062 (Hartree/Particle)
 Thermal correction to Energy=                    0.005666
 Thermal correction to Enthalpy=                  0.006610
 Thermal correction to Gibbs Free Energy=        -0.030606
 Sum of electronic and zero-point Energies=             -8.423288
 Sum of electronic and thermal Energies=                -8.417685
 Sum of electronic and thermal Enthalpies=              -8.416741
 Sum of electronic and thermal Free Energies=           -8.453957

                     E (Thermal)             CV                S
                      KCal/Mol        Cal/Mol-Kelvin    Cal/Mol-Kelvin
 Total                    3.555             11.922             78.328
 Electronic               0.000              0.000              0.000
 Translational            0.889              2.981             33.400
 Rotational               0.889              2.981             20.224
 Vibrational              1.778              5.961             24.704
 Vibration     1          0.593              1.987              8.528
 Vibration     2          0.593              1.987              8.435
 Vibration     3          0.593              1.987              7.741

 Optimization completed on the basis of negligible forces.
    -- Stationary point found.
 Normal termination of Gaussian 16 at Thu Nov  9 16:21:18 2023.
